[Molden Format]
made by pyscf v[1.7.6]
[Atoms] (AU)
H   1   1    -6.47439067537236    -4.23374240947556    10.37157286206289
H   2   1   -10.63424479337743    -2.03523503615657     9.85435482176943
C   3   6    -6.90411439609845    -3.27432845603388     8.60127742857033
H   4   1    -3.33933503471892    -4.22731734065204     6.92376754779393
C   5   6    -9.27345301107813    -2.01973928193514     8.30477939962608
H   6   1   -11.64657107830693     0.18216959840807     5.86079660272608
C   7   6    -5.15101547033945    -3.27319462035914     6.69076431663506
H   8   1    -0.56748475520689     2.04695133812888    -9.89403907038529
C   9   6    -9.84509516375906    -0.79179524619276     6.09417777910987
C   10   6    -5.66180844180938    -2.00991270608740     4.36016508720897
H   11   1    -2.08436791539526    -2.89676117634578     2.64127020430459
H   12   1    -0.80691305518928    -1.51726110541329    -1.61873939830243
H   13   1     0.44616433800981    -0.18500418759492    -5.90974050935232
C   14   6    -1.92619783876917     2.02767613165831    -8.34314083995475
H   15   1    -4.72204764006318     4.25547425990806   -10.39991875393136
C   16   6    -8.07668945639107    -0.74152853127933     4.05251767412978
H   17   1   -10.39632827429469     1.50119843335449     1.57036240951357
C   18   6    -3.89529246056596    -1.94112667515323     2.40335368522185
C   19   6    -2.61160150414892    -0.54707571306159    -1.84664036892498
C   20   6    -1.35512260392561     0.78990552006820    -6.13707456213749
C   21   6    -4.29345775501182     3.28717859368093    -8.63415866313777
H   22   1    -7.85672533549170     4.23525419037522    -6.95173549443749
C   23   6    -8.59126188011014     0.53233584928998     1.80166488716033
C   24   6    -4.39229043132657    -0.64288482757703     0.13303671916938
C   25   6    -3.12333933868113     0.73207990065650    -4.09503651193249
C   26   6    -6.04674565338328     3.27697407260827    -6.72440144165232
C   27   6    -6.81132884338231     0.62531037461858    -0.17820117354649
C   28   6    -5.53727549020054     2.00140893852686    -4.40155008933694
C   29   6    -7.30662606063081     1.92506400309443    -2.44814019437404
H   30   1    -9.11660574273923     2.88296617563646    -2.68662363129415
[GTO]
1 0
 s    3 1.00
             18.731137    0.03349459952309
             2.8253937    0.23472694665786
             0.6401217    0.81375731841339
 s    1 1.00
             0.1612778                   1

2 0
 s    3 1.00
             18.731137    0.03349459952309
             2.8253937    0.23472694665786
             0.6401217    0.81375731841339
 s    1 1.00
             0.1612778                   1

3 0
 s    6 1.00
             3047.5249  0.0018347001629433
             457.36951    0.01403730124668
             103.94869   0.068842606114048
             29.210155    0.23218442062076
              9.286663    0.46794134155879
              3.163927    0.36231203217765
 s    3 1.00
             7.8682724   -0.11933240861517
             1.8812885   -0.16085421161283
             0.5442493     1.1434564825515
 s    1 1.00
             0.1687144                   1
 p    3 1.00
             7.8682724   0.068999095584993
             1.8812885    0.31642397975315
             0.5442493    0.74430825237435
 p    1 1.00
             0.1687144                   1
 d    1 1.00
                   0.8                   1

4 0
 s    3 1.00
             18.731137    0.03349459952309
             2.8253937    0.23472694665786
             0.6401217    0.81375731841339
 s    1 1.00
             0.1612778                   1

5 0
 s    6 1.00
             3047.5249  0.0018347001629433
             457.36951    0.01403730124668
             103.94869   0.068842606114048
             29.210155    0.23218442062076
              9.286663    0.46794134155879
              3.163927    0.36231203217765
 s    3 1.00
             7.8682724   -0.11933240861517
             1.8812885   -0.16085421161283
             0.5442493     1.1434564825515
 s    1 1.00
             0.1687144                   1
 p    3 1.00
             7.8682724   0.068999095584993
             1.8812885    0.31642397975315
             0.5442493    0.74430825237435
 p    1 1.00
             0.1687144                   1
 d    1 1.00
                   0.8                   1

6 0
 s    3 1.00
             18.731137    0.03349459952309
             2.8253937    0.23472694665786
             0.6401217    0.81375731841339
 s    1 1.00
             0.1612778                   1

7 0
 s    6 1.00
             3047.5249  0.0018347001629433
             457.36951    0.01403730124668
             103.94869   0.068842606114048
             29.210155    0.23218442062076
              9.286663    0.46794134155879
              3.163927    0.36231203217765
 s    3 1.00
             7.8682724   -0.11933240861517
             1.8812885   -0.16085421161283
             0.5442493     1.1434564825515
 s    1 1.00
             0.1687144                   1
 p    3 1.00
             7.8682724   0.068999095584993
             1.8812885    0.31642397975315
             0.5442493    0.74430825237435
 p    1 1.00
             0.1687144                   1
 d    1 1.00
                   0.8                   1

8 0
 s    3 1.00
             18.731137    0.03349459952309
             2.8253937    0.23472694665786
             0.6401217    0.81375731841339
 s    1 1.00
             0.1612778                   1

9 0
 s    6 1.00
             3047.5249  0.0018347001629433
             457.36951    0.01403730124668
             103.94869   0.068842606114048
             29.210155    0.23218442062076
              9.286663    0.46794134155879
              3.163927    0.36231203217765
 s    3 1.00
             7.8682724   -0.11933240861517
             1.8812885   -0.16085421161283
             0.5442493     1.1434564825515
 s    1 1.00
             0.1687144                   1
 p    3 1.00
             7.8682724   0.068999095584993
             1.8812885    0.31642397975315
             0.5442493    0.74430825237435
 p    1 1.00
             0.1687144                   1
 d    1 1.00
                   0.8                   1

10 0
 s    6 1.00
             3047.5249  0.0018347001629433
             457.36951    0.01403730124668
             103.94869   0.068842606114048
             29.210155    0.23218442062076
              9.286663    0.46794134155879
              3.163927    0.36231203217765
 s    3 1.00
             7.8682724   -0.11933240861517
             1.8812885   -0.16085421161283
             0.5442493     1.1434564825515
 s    1 1.00
             0.1687144                   1
 p    3 1.00
             7.8682724   0.068999095584993
             1.8812885    0.31642397975315
             0.5442493    0.74430825237435
 p    1 1.00
             0.1687144                   1
 d    1 1.00
                   0.8                   1

11 0
 s    3 1.00
             18.731137    0.03349459952309
             2.8253937    0.23472694665786
             0.6401217    0.81375731841339
 s    1 1.00
             0.1612778                   1

12 0
 s    3 1.00
             18.731137    0.03349459952309
             2.8253937    0.23472694665786
             0.6401217    0.81375731841339
 s    1 1.00
             0.1612778                   1

13 0
 s    3 1.00
             18.731137    0.03349459952309
             2.8253937    0.23472694665786
             0.6401217    0.81375731841339
 s    1 1.00
             0.1612778                   1

14 0
 s    6 1.00
             3047.5249  0.0018347001629433
             457.36951    0.01403730124668
             103.94869   0.068842606114048
             29.210155    0.23218442062076
              9.286663    0.46794134155879
              3.163927    0.36231203217765
 s    3 1.00
             7.8682724   -0.11933240861517
             1.8812885   -0.16085421161283
             0.5442493     1.1434564825515
 s    1 1.00
             0.1687144                   1
 p    3 1.00
             7.8682724   0.068999095584993
             1.8812885    0.31642397975315
             0.5442493    0.74430825237435
 p    1 1.00
             0.1687144                   1
 d    1 1.00
                   0.8                   1

15 0
 s    3 1.00
             18.731137    0.03349459952309
             2.8253937    0.23472694665786
             0.6401217    0.81375731841339
 s    1 1.00
             0.1612778                   1

16 0
 s    6 1.00
             3047.5249  0.0018347001629433
             457.36951    0.01403730124668
             103.94869   0.068842606114048
             29.210155    0.23218442062076
              9.286663    0.46794134155879
              3.163927    0.36231203217765
 s    3 1.00
             7.8682724   -0.11933240861517
             1.8812885   -0.16085421161283
             0.5442493     1.1434564825515
 s    1 1.00
             0.1687144                   1
 p    3 1.00
             7.8682724   0.068999095584993
             1.8812885    0.31642397975315
             0.5442493    0.74430825237435
 p    1 1.00
             0.1687144                   1
 d    1 1.00
                   0.8                   1

17 0
 s    3 1.00
             18.731137    0.03349459952309
             2.8253937    0.23472694665786
             0.6401217    0.81375731841339
 s    1 1.00
             0.1612778                   1

18 0
 s    6 1.00
             3047.5249  0.0018347001629433
             457.36951    0.01403730124668
             103.94869   0.068842606114048
             29.210155    0.23218442062076
              9.286663    0.46794134155879
              3.163927    0.36231203217765
 s    3 1.00
             7.8682724   -0.11933240861517
             1.8812885   -0.16085421161283
             0.5442493     1.1434564825515
 s    1 1.00
             0.1687144                   1
 p    3 1.00
             7.8682724   0.068999095584993
             1.8812885    0.31642397975315
             0.5442493    0.74430825237435
 p    1 1.00
             0.1687144                   1
 d    1 1.00
                   0.8                   1

19 0
 s    6 1.00
             3047.5249  0.0018347001629433
             457.36951    0.01403730124668
             103.94869   0.068842606114048
             29.210155    0.23218442062076
              9.286663    0.46794134155879
              3.163927    0.36231203217765
 s    3 1.00
             7.8682724   -0.11933240861517
             1.8812885   -0.16085421161283
             0.5442493     1.1434564825515
 s    1 1.00
             0.1687144                   1
 p    3 1.00
             7.8682724   0.068999095584993
             1.8812885    0.31642397975315
             0.5442493    0.74430825237435
 p    1 1.00
             0.1687144                   1
 d    1 1.00
                   0.8                   1

20 0
 s    6 1.00
             3047.5249  0.0018347001629433
             457.36951    0.01403730124668
             103.94869   0.068842606114048
             29.210155    0.23218442062076
              9.286663    0.46794134155879
              3.163927    0.36231203217765
 s    3 1.00
             7.8682724   -0.11933240861517
             1.8812885   -0.16085421161283
             0.5442493     1.1434564825515
 s    1 1.00
             0.1687144                   1
 p    3 1.00
             7.8682724   0.068999095584993
             1.8812885    0.31642397975315
             0.5442493    0.74430825237435
 p    1 1.00
             0.1687144                   1
 d    1 1.00
                   0.8                   1

21 0
 s    6 1.00
             3047.5249  0.0018347001629433
             457.36951    0.01403730124668
             103.94869   0.068842606114048
             29.210155    0.23218442062076
              9.286663    0.46794134155879
              3.163927    0.36231203217765
 s    3 1.00
             7.8682724   -0.11933240861517
             1.8812885   -0.16085421161283
             0.5442493     1.1434564825515
 s    1 1.00
             0.1687144                   1
 p    3 1.00
             7.8682724   0.068999095584993
             1.8812885    0.31642397975315
             0.5442493    0.74430825237435
 p    1 1.00
             0.1687144                   1
 d    1 1.00
                   0.8                   1

22 0
 s    3 1.00
             18.731137    0.03349459952309
             2.8253937    0.23472694665786
             0.6401217    0.81375731841339
 s    1 1.00
             0.1612778                   1

23 0
 s    6 1.00
             3047.5249  0.0018347001629433
             457.36951    0.01403730124668
             103.94869   0.068842606114048
             29.210155    0.23218442062076
              9.286663    0.46794134155879
              3.163927    0.36231203217765
 s    3 1.00
             7.8682724   -0.11933240861517
             1.8812885   -0.16085421161283
             0.5442493     1.1434564825515
 s    1 1.00
             0.1687144                   1
 p    3 1.00
             7.8682724   0.068999095584993
             1.8812885    0.31642397975315
             0.5442493    0.74430825237435
 p    1 1.00
             0.1687144                   1
 d    1 1.00
                   0.8                   1

24 0
 s    6 1.00
             3047.5249  0.0018347001629433
             457.36951    0.01403730124668
             103.94869   0.068842606114048
             29.210155    0.23218442062076
              9.286663    0.46794134155879
              3.163927    0.36231203217765
 s    3 1.00
             7.8682724   -0.11933240861517
             1.8812885   -0.16085421161283
             0.5442493     1.1434564825515
 s    1 1.00
             0.1687144                   1
 p    3 1.00
             7.8682724   0.068999095584993
             1.8812885    0.31642397975315
             0.5442493    0.74430825237435
 p    1 1.00
             0.1687144                   1
 d    1 1.00
                   0.8                   1

25 0
 s    6 1.00
             3047.5249  0.0018347001629433
             457.36951    0.01403730124668
             103.94869   0.068842606114048
             29.210155    0.23218442062076
              9.286663    0.46794134155879
              3.163927    0.36231203217765
 s    3 1.00
             7.8682724   -0.11933240861517
             1.8812885   -0.16085421161283
             0.5442493     1.1434564825515
 s    1 1.00
             0.1687144                   1
 p    3 1.00
             7.8682724   0.068999095584993
             1.8812885    0.31642397975315
             0.5442493    0.74430825237435
 p    1 1.00
             0.1687144                   1
 d    1 1.00
                   0.8                   1

26 0
 s    6 1.00
             3047.5249  0.0018347001629433
             457.36951    0.01403730124668
             103.94869   0.068842606114048
             29.210155    0.23218442062076
              9.286663    0.46794134155879
              3.163927    0.36231203217765
 s    3 1.00
             7.8682724   -0.11933240861517
             1.8812885   -0.16085421161283
             0.5442493     1.1434564825515
 s    1 1.00
             0.1687144                   1
 p    3 1.00
             7.8682724   0.068999095584993
             1.8812885    0.31642397975315
             0.5442493    0.74430825237435
 p    1 1.00
             0.1687144                   1
 d    1 1.00
                   0.8                   1

27 0
 s    6 1.00
             3047.5249  0.0018347001629433
             457.36951    0.01403730124668
             103.94869   0.068842606114048
             29.210155    0.23218442062076
              9.286663    0.46794134155879
              3.163927    0.36231203217765
 s    3 1.00
             7.8682724   -0.11933240861517
             1.8812885   -0.16085421161283
             0.5442493     1.1434564825515
 s    1 1.00
             0.1687144                   1
 p    3 1.00
             7.8682724   0.068999095584993
             1.8812885    0.31642397975315
             0.5442493    0.74430825237435
 p    1 1.00
             0.1687144                   1
 d    1 1.00
                   0.8                   1

28 0
 s    6 1.00
             3047.5249  0.0018347001629433
             457.36951    0.01403730124668
             103.94869   0.068842606114048
             29.210155    0.23218442062076
              9.286663    0.46794134155879
              3.163927    0.36231203217765
 s    3 1.00
             7.8682724   -0.11933240861517
             1.8812885   -0.16085421161283
             0.5442493     1.1434564825515
 s    1 1.00
             0.1687144                   1
 p    3 1.00
             7.8682724   0.068999095584993
             1.8812885    0.31642397975315
             0.5442493    0.74430825237435
 p    1 1.00
             0.1687144                   1
 d    1 1.00
                   0.8                   1

29 0
 s    6 1.00
             3047.5249  0.0018347001629433
             457.36951    0.01403730124668
             103.94869   0.068842606114048
             29.210155    0.23218442062076
              9.286663    0.46794134155879
              3.163927    0.36231203217765
 s    3 1.00
             7.8682724   -0.11933240861517
             1.8812885   -0.16085421161283
             0.5442493     1.1434564825515
 s    1 1.00
             0.1687144                   1
 p    3 1.00
             7.8682724   0.068999095584993
             1.8812885    0.31642397975315
             0.5442493    0.74430825237435
 p    1 1.00
             0.1687144                   1
 d    1 1.00
                   0.8                   1

30 0
 s    3 1.00
             18.731137    0.03349459952309
             2.8253937    0.23472694665786
             0.6401217    0.81375731841339
 s    1 1.00
             0.1612778                   1

[5d]
[7f]
[9g]

[MO]
 Sym= A
 Ene=               0
 Spin= Alpha
 Occup=    1.00000
   1    -0.00010696851041107
   2    0.00038823218239381
   3    -5.4384635056206e-05
   4    -0.00080767783292116
   5    -0.00015992966183154
   6    0.00021380579611039
   7    0.0032021268698855
   8    0.0014834699315063
   9     0.002437549471533
  10    0.00056972721178963
  11    3.3044313674783e-05
  12    0.00021834782415811
  13    -0.0021199126722414
  14    0.00030289917951665
  15    -4.2304975105425e-05
  16    0.00050866014010772
  17    -0.00032130841241847
  18    -0.00054199751096592
  19    -0.00014734604792358
  20    -0.00088548085100506
  21    9.4781553721893e-06
  22    9.7653943792558e-05
  23    -0.0017028097569792
  24    -0.0020350617497973
  25    -0.0044701739753684
  26    -0.0017854027383164
  27    0.0020606453719835
  28    0.0065351984848754
  29     0.004154632347851
  30    0.00041696159626935
  31    0.00044350373249954
  32    0.00040262862419996
  33    0.00062210891115625
  34    0.00018922961887215
  35    2.5603592982968e-05
  36    0.00061643436101791
  37    0.00020224673195847
  38    -0.00036337998405742
  39    -0.0032553751707523
  40    0.0017862584752416
  41     0.003037826521565
  42    0.0020440984735953
  43    -0.0026713868642014
  44    -0.010460180319542
  45    -0.0041500543301759
  46    0.00079024685163461
  47    0.0005627537460883
  48    0.00075821901494021
  49    0.0008211880985946
  50    0.00013619457212959
  51     5.79775321007e-05
  52    -0.00015393540849317
  53    -2.275528289138e-05
  54    -0.00014308876231912
  55    0.0021175998318441
  56    0.0021114033605737
  57    0.0043414410520986
  58    0.0020865968472182
  59    -1.459978768871e-05
  60    -0.0029585478051722
  61    -0.001001650052914
  62    -0.000368576833375
  63    -0.00019299648917636
  64    -0.00041724384598268
  65    -8.394192754889e-05
  66    0.0002217729193844
  67    -0.0004441784248836
  68    0.0012439531874666
  69    0.0047392730356414
  70    -0.010373627624911
  71    -0.024140668906181
  72    -0.012302017368537
  73    0.0011922904989206
  74    -4.2165853312283e-05
  75    -0.0008042438190823
  76    -0.0033156063168595
  77    -0.00045516689450133
  78    -0.0039305679479153
  79     0.001324771317487
  80      0.00335950929158
  81    9.2259363035089e-05
  82    -0.0012289832994127
  83    -0.0014599900251561
  84    -0.0018507450969318
  85    0.00016199781348302
  86    0.00070518833363057
  87    0.00013573049394209
  88    -0.00021319240072234
  89    -0.0034513503242288
  90    0.0010718719892527
  91    0.0025860371770377
  92    0.00063366216457175
  93    0.00028452984659888
  94    9.3921087768306e-05
  95    -0.0018168762391955
  96    -0.00042050352006964
  97    -0.00040926427294952
  98    -0.00037244839852317
  99    -0.0005090159380879
 100    -8.465674251445e-05
 101    3.7657159915875e-05
 102    0.00073365849631256
 103    5.1615446900518e-06
 104    0.00013447216755446
 105    -0.004107010190405
 106     0.011216895820195
 107     0.021978883779549
 108     0.010123789718822
 109    -0.0059200857532487
 110    -0.015035259292082
 111    -0.0055333472528708
 112    0.00044721646744701
 113    0.00012925505796748
 114    0.00057781106525733
 115    -2.1387081689409e-05
 116    -0.00043421898262682
 117    8.3189446281506e-05
 118    0.00068178553395717
 119    4.5598885416519e-05
 120    0.00035538401988481
 121    -0.0036317714873583
 122     0.031891580766599
 123     0.067097873272818
 124     0.031644299380131
 125     0.070991670072763
 126      0.14574568213502
 127      0.06641429990974
 128     0.020969444073831
 129      0.01264558647384
 130     0.019630579197432
 131      0.01364387846722
 132    -0.0043169771039445
 133    -0.00017584243795831
 134    0.00015905567068522
 135    0.0026633850659715
 136     0.031057697792623
 137     0.067553403960363
 138     0.032207776383381
 139     0.067565412455799
 140       0.1456647105593
 141     0.068120717370225
 142    -0.018861567727528
 143    -0.0032216177080641
 144    -0.021724161419225
 145    0.0043270668180062
 146     0.018138377012952
 147    -0.00018563261822388
 148    0.00032186834513833
 149    0.0030977606130027
 150    0.0013066657928385
 151    0.0031217020602357
 152    0.0018885888310195
 153    -0.0062032514334564
 154    -0.0085066356711659
 155    -0.0054824172766604
 156    -0.00068059907061951
 157    -3.7342830334618e-05
 158    -0.00081097726147015
 159    0.00051736883973959
 160    0.00087127899670441
 161    -1.4394476457371e-05
 162    -0.00010806229259141
 163    0.0018387980466466
 164    -0.0021160349032067
 165    -0.0044000755495128
 166    -0.0018344272923423
 167    0.0033269478899827
 168    0.0057927636179187
 169      0.00432306025741
 170    -0.0003222424168262
 171    8.059096881787e-05
 172    -0.00049614268173972
 173    0.00045489049433635
 174    0.00061950756972719
 175    -4.2996568045695e-05
 176    -0.00060932121005262
 177    -0.00021964683244695
 178    0.00028021019468875
 179    0.0040267760722529
 180    -0.011666233405246
 181    -0.024447050629549
 182    -0.011147425902245
 183    -0.0038286899129519
 184    -0.012309518980523
 185    -0.0031563062624998
 186    -0.0053147435971875
 187    -0.0021354369470392
 188    -0.0055478829619976
 189    -0.0013064519322875
 190    0.0029431617024986
 191    0.00020987544071953
 192    -0.00056741289046059
 193    -0.00083960837112641
 194     -0.23631555855137
 195     -0.50893276371536
 196     -0.23924819779699
 197     -0.29204564845604
 198     -0.62402445200361
 199     -0.29076443701757
 200    -0.00047606837072891
 201    -0.0021361603568675
 202    0.00048044403459524
 203    -0.0040412089146444
 204    -0.0030963288176828
 205    0.0002831423168501
 206    -0.00088983906372442
 207    -0.0026983886840097
 208    -0.011354340283794
 209    -0.023843542489875
 210    -0.011757236555508
 211    0.0013656630257914
 212    -0.00083170662290352
 213    0.0011252169254905
 214    0.0036831378514565
 215    0.0024531582064501
 216    0.0034804503393054
 217    0.0027453691652162
 218    -0.00037421803672726
 219    3.3917312295604e-05
 220    0.00016332787168327
 221    -0.002627520365952
 222    0.0020618158075503
 223    0.0043554837220353
 224    0.0022062991038051
 225    -0.0025545647006384
 226    -0.0015598902023382
 227    -0.0013003478886291
 228    0.00037587179088607
 229    0.0001665259088306
 230    0.00044185478146246
 231    0.00010533423201712
 232    -0.0002073379425688
 233    -3.6032796934491e-05
 234    0.00013923909216761
 235    -0.00087550809480339
 236     0.017864046463007
 237     0.037325310585893
 238     0.017029073342246
 239     0.083441326695672
 240      0.17981100919526
 241     0.081271359049562
 242    -0.002523931771741
 243    -0.012875292079807
 244    0.0028502071132437
 245    -0.024108631075204
 246    -0.018390605178819
 247    -3.3653139195649e-05
 248    -0.00014333541185355
 249    0.0044808868565471
 250    0.0098465879959493
 251     0.022647655400889
 252     0.010136241029997
 253    -0.0059235969108675
 254    -0.014219469922458
 255    -0.007145919610041
 256    -0.00051509710213887
 257    -0.00034610488975428
 258    -0.00055540683632249
 259    -0.0002674946989311
 260    0.00016869746733007
 261    -2.6203787029061e-05
 262    0.00036473087953717
 263    -0.0020076759220516
 264    -0.011276026102582
 265    -0.024428582194725
 266    -0.010829810432987
 267    -0.0065897986073045
 268     -0.01042457903058
 269    -0.0048189560791348
 270    0.0053456599270814
 271    0.0021001677513312
 272    0.0055099325365628
 273    0.0011286493139656
 274    -0.0030518836424882
 275    -0.00022627629012479
 276    -0.0011708918524739
 Sym= A
 Ene=               1
 Spin= Alpha
 Occup=    1.00000
   1    -1.7172052502637e-05
   2    -0.00012520326524313
   3    4.1924824006857e-05
   4    0.00031404894413489
   5    1.4909293023676e-05
   6    -2.1893351322628e-06
   7    -0.0005119226417182
   8    -0.00012391505031349
   9    -0.00032847502592579
  10    -0.00013233260061869
  11    -0.00021942546719626
  12    -0.0010938826922917
  13    -6.2843185795726e-05
  14    -0.00017594680751786
  15    -0.00012920630520899
  16    -0.00018200991503266
  17    -0.00013744446371423
  18    2.5394183265445e-05
  19    -2.3055224875098e-05
  20    9.2151825595097e-05
  21    2.8952988473056e-06
  22    -4.0963938896738e-05
  23    0.00038648667666577
  24    -0.00032220344630282
  25    -0.00071679722512576
  26    -0.00032180011302865
  27    0.0018031651285812
  28    0.0029275343317831
  29    0.0010492359915146
  30    0.00035652094881987
  31    0.00020690101538217
  32    0.00037345473467132
  33    0.00019485576036758
  34    -9.4900491038951e-05
  35    5.7559043947873e-05
  36    1.0429495778885e-05
  37    -6.1842524879419e-06
  38    -3.9120803514359e-05
  39    0.00064027801985399
  40    5.3336110000017e-05
  41    0.00018772739121028
  42    0.00015329612732991
  43    0.00023331106578261
  44    0.0011336005739567
  45    0.00012962741433044
  46    0.0001741232882565
  47    -3.7890744350516e-06
  48    0.0002024508713385
  49    -0.00010082196996325
  50    -0.00018909728465978
  51    -0.00012557045808748
  52    0.00059925892972846
  53    -3.6362826753615e-05
  54    0.00013857420705582
  55    -0.00033047567749888
  56    0.0015335125852053
  57    0.0028774674541824
  58    0.0010988043276799
  59    -0.0033294539771507
  60    -0.0065132159635178
  61    -0.0029220086544737
  62    -0.00042960517782226
  63    -5.9864065454075e-05
  64    -0.00051620441595083
  65    0.0002117289877128
  66    0.00042818225253256
  67    3.6563164133344e-05
  68    6.6800827508745e-05
  69    -0.0023510488843446
  70    0.00060030459627468
  71    0.0010480875642259
  72    0.00046844027936635
  73    -0.0025431907675722
  74    -0.0045674760038819
  75    -0.0017278811738498
  76    0.00016770789657704
  77    -0.00022217837156493
  78    0.00035100495586216
  79    -0.00057453148242829
  80    -0.00066093735782702
  81    1.7856487909714e-05
  82    0.00049520324667085
  83    0.00025717765598756
  84    0.0005997238012537
  85    0.00060527760412274
  86    0.0017049827468285
  87    3.7529997178768e-05
  88    -0.00031158609146985
  89    3.2125889213029e-05
  90     0.013560410641621
  91     0.028000344504885
  92      0.01217531920471
  93    -0.011433882935598
  94    -0.021174562689451
  95    -0.0083810801063535
  96    -0.00069106461933044
  97    -0.00065622073996093
  98    -0.00055445186538293
  99    -0.0010230092951116
 100    -0.00035815208285493
 101    0.00057365333352261
 102    0.0011493725115751
 103    3.1430004113365e-05
 104    -9.640367409575e-05
 105    0.0006219163531997
 106    -0.00026725101225885
 107    -0.0010029134934578
 108    -0.00018430440029041
 109    0.0045175100255723
 110    0.0093883962340436
 111    0.0043203386910314
 112    0.00010652840014094
 113    3.6315415166031e-07
 114    8.8336605405231e-05
 115    6.7875798743806e-06
 116    4.9447919513009e-06
 117    0.00030543831187399
 118    0.00090745185256068
 119    1.0340151922633e-05
 120    -0.00026609921881637
 121    0.0018994136262374
 122    -0.001582009470823
 123    -0.0035295404020249
 124    -0.0012797200253001
 125     0.000851357558087
 126    0.0051458588736445
 127    0.0028721546463716
 128    -0.0013479736433915
 129    -0.0006779698474371
 130    -0.0014014496414398
 131    -0.0005412633567333
 132    0.00058783841005719
 133    0.00034450140286766
 134    -0.00065873098739574
 135    -0.0039635352674424
 136    -0.011266827669818
 137     -0.02519081805068
 138    -0.010854952756757
 139    -0.0058678360570014
 140    -0.012975963253724
 141    -0.0042432678571345
 142    -0.0025639507473734
 143    -0.00078312115817304
 144    -0.0028999207365076
 145    -3.743381698311e-05
 146    0.0018207514433251
 147    0.00048787871881706
 148    -0.0011559818498733
 149    -0.0038765780094497
 150    -0.0056316249103549
 151    -0.014279628665361
 152    -0.0071595587066333
 153    -0.0070484279853403
 154    -0.015400731000837
 155    -0.0092392294608762